LAMMPS data file from restart file: timestep = 0,  procs = 1
4000 atoms 
5000 bonds 
4000 angles 
2000 dihedrals 

6 atom types 
3 bond types 
2 angle types 
1 dihedral types 

-74.112726 74.112726 xlo xhi 
-74.112726 74.112726 ylo yhi 
-74.112726 74.112726 zlo zhi 

Masses 

1 1 
2 1 
3 1 
4 1 
5 1 
6 1 

Atoms 

1 1 1 5.471268e+01 0.000000e+00 -0.000000 
2 1 2 5.421268e+01 0.000000e+00 -0.000000 
3 2 5 5.461820e+01 3.431808e-01 -0.321496 
4 2 2 5.419604e+01 3.405283e-01 -0.053583 
5 3 5 5.436386e+01 6.831923e-01 -0.542896 
6 3 2 5.415098e+01 6.805171e-01 -0.090483 
7 4 1 5.402788e+01 1.018522e+00 -0.595269 
8 4 2 5.409054e+01 1.019703e+00 -0.099211 
9 5 5 5.371326e+01 1.350246e+00 -0.462308 
10 5 2 5.403187e+01 1.358255e+00 -0.077051 
11 6 5 5.351563e+01 1.681796e+00 -0.185410 
12 6 2 5.399092e+01 1.696733e+00 -0.030902 
13 7 1 5.349350e+01 2.017613e+00 0.149214 
14 7 2 5.397744e+01 2.035866e+00 0.024869 
15 8 5 5.365002e+01 2.361174e+00 0.437381 
16 8 2 5.399196e+01 2.376223e+00 0.072897 
17 9 5 5.393205e+01 2.713206e+00 0.589372 
18 9 2 5.402562e+01 2.717913e+00 0.098229 
19 10 1 5.424671e+01 3.070853e+00 0.557866 
20 10 2 5.406294e+01 3.060450e+00 0.092978 
21 11 5 5.449035e+01 3.428242e+00 0.352671 
22 11 2 5.408664e+01 3.402843e+00 0.058779 
23 12 5 5.458087e+01 3.778377e+00 0.037674 
24 12 2 5.408305e+01 3.743915e+00 0.006279 
25 13 1 5.448323e+01 4.115741e+00 -0.289052 
26 13 2 5.404632e+01 4.082736e+00 -0.048175 
27 14 5 5.422035e+01 4.438671e+00 -0.525784 
28 14 2 5.398028e+01 4.419017e+00 -0.087631 
29 15 5 5.386593e+01 4.750554e+00 -0.598816 
30 15 2 5.389721e+01 4.753312e+00 -0.099803 
31 16 1 5.352142e+01 5.059264e+00 -0.485410 
32 16 2 5.381401e+01 5.086922e+00 -0.080902 
33 17 5 5.328442e+01 5.374853e+00 -0.220875 
34 17 2 5.374696e+01 5.421510e+00 -0.036812 
35 18 5 5.321827e+01 5.706182e+00 0.112429 
36 18 2 5.370661e+01 5.758543e+00 0.018738 
37 19 1 5.333238e+01 6.057600e+00 0.410728 
38 19 2 5.369454e+01 6.098735e+00 0.068455 
39 20 5 5.357939e+01 6.426896e+00 0.581150 
40 20 2 5.370285e+01 6.441705e+00 0.096858 
41 21 5 5.386993e+01 6.805355e+00 0.570634 
42 21 2 5.371664e+01 6.785990e+00 0.095106 
43 22 1 5.410060e+01 7.180123e+00 0.382454 
44 22 2 5.371869e+01 7.129437e+00 0.063742 
45 23 5 5.418611e+01 7.538224e+00 0.075200 
46 23 2 5.369479e+01 7.469872e+00 0.012533 
47 24 5 5.408585e+01 7.870992e+00 -0.255468 
48 24 2 5.363816e+01 7.805840e+00 -0.042578 
49 25 1 5.381644e+01 8.177406e+00 -0.506597 
50 25 2 5.355157e+01 8.137159e+00 -0.084433 
51 26 5 5.344646e+01 8.465088e+00 -0.600000 
52 26 2 5.344646e+01 8.465088e+00 -0.100000 
53 27 5 5.307501e+01 8.748446e+00 -0.506597 
54 27 2 5.333935e+01 8.792018e+00 -0.084433 
55 28 1 5.280077e+01 9.044371e+00 -0.255468 
56 28 2 5.324669e+01 9.120754e+00 -0.042578 
57 29 5 5.269133e+01 9.366781e+00 0.075200 
58 29 2 5.317974e+01 9.453603e+00 0.012533 
59 30 5 5.276220e+01 9.721757e+00 0.382454 
60 30 2 5.314108e+01 9.791567e+00 0.063742 
61 31 1 5.297207e+01 1.010496e+01 0.570634 
62 31 2 5.312384e+01 1.013391e+01 0.095106 
63 32 5 5.323583e+01 1.050236e+01 0.581150 
64 32 2 5.311384e+01 1.047829e+01 0.096858 
65 33 5 5.345115e+01 1.089419e+01 0.410728 
66 33 2 5.309401e+01 1.082140e+01 0.068455 
67 34 1 5.353038e+01 1.126111e+01 0.112429 
68 34 2 5.304976e+01 1.116000e+01 0.018738 
69 35 5 5.342778e+01 1.159054e+01 -0.220875 
70 35 2 5.297346e+01 1.149198e+01 -0.036812 
71 36 5 5.315365e+01 1.188125e+01 -0.485410 
72 36 2 5.286684e+01 1.181714e+01 -0.080902 
73 37 1 5.277098e+01 1.214434e+01 -0.598816 
74 37 2 5.274038e+01 1.213730e+01 -0.099803 
75 38 5 5.237569e+01 1.240039e+01 -0.525784 
76 38 2 5.261009e+01 1.245589e+01 -0.087631 
77 39 5 5.206673e+01 1.267325e+01 -0.289052 
78 39 2 5.249245e+01 1.277687e+01 -0.048175 
79 40 1 5.191522e+01 1.298242e+01 0.037674 
80 40 2 5.239933e+01 1.310348e+01 0.006279 
81 41 5 5.194247e+01 1.333656e+01 0.352671 
82 41 2 5.233427e+01 1.343716e+01 0.058779 
83 42 5 5.211346e+01 1.373005e+01 0.557866 
84 42 2 5.229144e+01 1.377695e+01 0.092978 
85 43 1 5.234793e+01 1.414416e+01 0.589372 
86 43 2 5.225748e+01 1.411972e+01 0.098229 
87 44 5 5.254550e+01 1.455241e+01 0.437381 
88 44 2 5.221564e+01 1.446105e+01 0.072897 
89 45 5 5.261698e+01 1.492879e+01 0.149214 
90 45 2 5.215108e+01 1.479660e+01 0.024869 
91 46 1 5.251204e+01 1.525616e+01 -0.185410 
92 46 2 5.205539e+01 1.512349e+01 -0.030902 
93 47 5 5.223477e+01 1.553216e+01 -0.462308 
94 47 2 5.192928e+01 1.544132e+01 -0.077051 
95 48 5 5.184220e+01 1.577063e+01 -0.595269 
96 48 2 5.178224e+01 1.575239e+01 -0.099211 
97 49 1 5.142634e+01 1.599783e+01 -0.542896 
98 49 2 5.162962e+01 1.606107e+01 -0.090483 
99 50 5 5.108549e+01 1.624453e+01 -0.321496 
100 50 2 5.148780e+01 1.637246e+01 -0.053583 
101 51 5 5.089358e+01 1.653633e+01 -0.000000 
102 51 2 5.136911e+01 1.669084e+01 -0.000000 
103 52 1 5.087733e+01 1.688519e+01 0.321496 
104 52 2 5.127800e+01 1.701817e+01 0.053583 
105 53 5 5.100808e+01 1.728513e+01 0.542896 
106 53 2 5.120970e+01 1.735345e+01 0.090483 
107 54 5 5.121097e+01 1.771337e+01 0.595269 
108 54 2 5.115174e+01 1.769288e+01 0.099211 
109 55 1 5.138840e+01 1.813705e+01 0.462308 
110 55 2 5.108785e+01 1.803097e+01 0.077051 
111 56 5 5.145048e+01 1.852331e+01 0.185410 
112 56 2 5.100306e+01 1.836223e+01 0.030902 
113 57 5 5.134295e+01 1.884984e+01 -0.149214 
114 57 2 5.088833e+01 1.868293e+01 -0.024869 
115 58 1 5.106389e+01 1.911233e+01 -0.437381 
116 58 2 5.074334e+01 1.899235e+01 -0.072897 
117 59 5 5.066409e+01 1.932647e+01 -0.589372 
118 59 2 5.057655e+01 1.929308e+01 -0.098229 
119 60 5 5.023100e+01 1.952367e+01 -0.557866 
120 60 2 5.040255e+01 1.959035e+01 -0.092978 
121 61 1 4.986138e+01 1.974151e+01 -0.352671 
122 61 2 5.023748e+01 1.989042e+01 -0.058779 
123 62 5 4.963117e+01 2.001200e+01 -0.037674 
124 62 2 5.009398e+01 2.019861e+01 -0.006279 
125 63 5 4.957202e+01 2.035118e+01 0.289052 
126 63 2 4.997734e+01 2.051758e+01 0.048175 
127 64 1 4.966159e+01 2.075353e+01 0.525784 
128 64 2 4.988385e+01 2.084641e+01 0.087631 
129 65 5 4.983088e+01 2.119302e+01 0.598816 
130 65 2 4.980199e+01 2.118074e+01 0.099803 
131 66 5 4.998583e+01 2.163080e+01 0.485410 
132 66 2 4.971611e+01 2.151408e+01 0.080902 
133 67 1 5.003674e+01 2.202712e+01 0.220875 
134 67 2 4.961125e+01 2.183981e+01 0.036812 
135 68 5 4.992610e+01 2.235394e+01 -0.112429 
136 68 2 4.947784e+01 2.215324e+01 -0.018738 
137 69 5 4.964634e+01 2.260421e+01 -0.410728 
138 69 2 4.931462e+01 2.245318e+01 -0.068455 
139 70 1 4.924182e+01 2.279465e+01 -0.581150 
140 70 2 4.912898e+01 2.274241e+01 -0.096858 
141 71 5 4.879485e+01 2.296112e+01 -0.570634 
142 71 2 4.893466e+01 2.302690e+01 -0.095106 
143 72 5 4.839982e+01 2.314778e+01 -0.382454 
144 72 2 4.874738e+01 2.331400e+01 -0.063742 
145 73 1 4.813384e+01 2.339330e+01 -0.075200 
146 73 2 4.858000e+01 2.361014e+01 -0.012533 
147 74 5 4.803287e+01 2.371846e+01 0.255468 
148 74 2 4.843852e+01 2.391877e+01 0.042578 
149 75 5 4.808079e+01 2.411906e+01 0.506597 
150 75 2 4.832026e+01 2.423919e+01 0.084433 
151 76 1 4.821475e+01 2.456664e+01 0.600000 
152 76 2 4.821475e+01 2.456664e+01 0.100000 
153 77 5 4.834498e+01 2.501685e+01 0.506597 
154 77 2 4.810703e+01 2.489372e+01 0.084433 
155 78 5 4.838283e+01 2.542310e+01 0.255468 
156 78 2 4.798234e+01 2.521266e+01 0.042578 
157 79 1 4.826834e+01 2.575125e+01 -0.075200 
158 79 2 4.783068e+01 2.551775e+01 -0.012533 
159 80 5 4.798868e+01 2.599069e+01 -0.382454 
160 80 2 4.764992e+01 2.580722e+01 -0.063742 
161 81 5 4.758178e+01 2.615830e+01 -0.570634 
162 81 2 4.744638e+01 2.608387e+01 -0.095106 
163 82 1 4.712427e+01 2.629371e+01 -0.581150 
164 82 2 4.723286e+01 2.635429e+01 -0.096858 
165 83 5 4.670737e+01 2.644729e+01 -0.410728 
166 83 2 4.702454e+01 2.662688e+01 -0.068455 
167 84 5 4.640849e+01 2.666451e+01 -0.112429 
168 84 2 4.683435e+01 2.690920e+01 -0.018738 
169 85 1 4.626726e+01 2.697145e+01 0.220875 
170 85 2 4.666889e+01 2.720558e+01 0.036812 
171 86 5 4.627350e+01 2.736607e+01 0.485410 
172 86 2 4.652647e+01 2.751567e+01 0.080902 
173 87 5 4.637076e+01 2.781832e+01 0.598816 
174 87 2 4.639768e+01 2.783447e+01 0.099803 
175 88 1 4.647417e+01 2.827896e+01 0.525784 
176 88 2 4.626840e+01 2.815375e+01 0.087631 
177 89 5 4.649703e+01 2.869474e+01 0.289052 
178 89 2 4.612417e+01 2.846463e+01 0.048175 
179 90 5 4.637773e+01 2.902506e+01 -0.037674 
180 90 2 4.595473e+01 2.876033e+01 -0.006279 
181 91 1 4.609869e+01 2.925512e+01 -0.352671 
182 91 2 4.575715e+01 2.903837e+01 -0.058779 
183 92 5 4.569151e+01 2.940104e+01 -0.557866 
184 92 2 4.553672e+01 2.930144e+01 -0.092978 
185 93 5 4.522673e+01 2.950543e+01 -0.589372 
186 93 2 4.530519e+01 2.955662e+01 -0.098229 
187 94 1 4.479164e+01 2.962446e+01 -0.437381 
188 94 2 4.507712e+01 2.981327e+01 -0.072897 
189 95 5 4.446307e+01 2.981040e+01 -0.149214 
190 95 2 4.486532e+01 3.008009e+01 -0.024869 
191 96 5 4.428359e+01 3.009509e+01 0.185410 
192 96 2 4.467689e+01 3.036238e+01 0.030902 
193 97 1 4.424859e+01 3.047949e+01 0.462308 
194 97 2 4.451106e+01 3.066028e+01 0.077051 
195 98 5 4.430815e+01 3.093279e+01 0.595269 
196 98 2 4.435953e+01 3.096866e+01 0.099211 
197 99 5 4.438285e+01 3.140156e+01 0.542896 
198 99 2 4.420906e+01 3.127860e+01 0.090483 
199 100 1 4.438877e+01 3.182613e+01 0.321496 
200 100 2 4.404568e+01 3.158014e+01 0.053583 
201 101 5 4.426349e+01 3.215931e+01 0.000000 
202 101 2 4.385898e+01 3.186541e+01 0.000000 
203 102 5 4.398533e+01 3.238141e+01 -0.321496 
204 102 2 4.364536e+01 3.213113e+01 -0.053583 
205 103 1 4.357971e+01 3.250699e+01 -0.542896 
206 103 2 4.340907e+01 3.237970e+01 -0.090483 
207 104 5 4.311080e+01 3.258079e+01 -0.595269 
208 104 2 4.316080e+01 3.261858e+01 -0.099211 
209 105 5 4.266128e+01 3.266423e+01 -0.462308 
210 105 2 4.291434e+01 3.285799e+01 -0.077051 
211 106 1 4.230652e+01 3.281630e+01 -0.185410 
212 106 2 4.268226e+01 3.310775e+01 -0.030902 
213 107 5 4.209122e+01 3.307497e+01 0.149214 
214 107 2 4.247202e+01 3.337420e+01 0.024869 
215 108 5 4.201591e+01 3.344492e+01 0.437381 
216 108 2 4.228371e+01 3.365808e+01 0.072897 
217 109 1 4.203716e+01 3.389549e+01 0.589372 
218 109 2 4.211009e+01 3.395430e+01 0.098229 
219 110 5 4.208150e+01 3.436979e+01 0.557866 
220 110 2 4.193895e+01 3.425335e+01 0.092978 
221 111 5 4.206855e+01 3.480213e+01 0.352671 
222 111 2 4.175687e+01 3.454429e+01 0.058779 
223 112 1 4.193598e+01 3.513860e+01 0.037674 
224 112 2 4.155349e+01 3.481811e+01 0.006279 
225 113 5 4.165869e+01 3.535414e+01 -0.289052 
226 113 2 4.132462e+01 3.507063e+01 -0.048175 
227 114 5 4.125620e+01 3.546088e+01 -0.525784 
228 114 2 4.107353e+01 3.530387e+01 -0.087631 
229 115 1 4.078615e+01 3.550488e+01 -0.598816 
230 115 2 4.080983e+01 3.552549e+01 -0.099803 
231 116 5 4.032598e+01 3.555213e+01 -0.485410 
232 116 2 4.054643e+01 3.574649e+01 -0.080902 
233 117 5 3.994874e+01 3.566814e+01 -0.220875 
234 117 2 4.029552e+01 3.597776e+01 -0.036812 
235 118 1 3.970047e+01 3.589731e+01 0.112429 
236 118 2 4.006478e+01 3.622671e+01 0.018738 
237 119 5 3.958624e+01 3.624869e+01 0.410728 
238 119 2 3.985505e+01 3.649484e+01 0.068455 
239 120 5 3.956900e+01 3.669264e+01 0.581150 
240 120 2 3.966018e+01 3.677719e+01 0.096858 
241 121 1 3.958160e+01 3.716960e+01 0.570634 
242 121 2 3.946897e+01 3.706383e+01 0.095106 
243 122 5 3.954794e+01 3.760838e+01 0.382454 
244 122 2 3.926876e+01 3.734289e+01 0.063742 
245 123 5 3.940663e+01 3.794835e+01 0.075200 
246 123 2 3.904932e+01 3.760426e+01 0.012533 
247 124 1 3.912992e+01 3.815863e+01 -0.255468 
248 124 2 3.880602e+01 3.784277e+01 -0.042578 
249 125 5 3.873186e+01 3.824817e+01 -0.506597 
250 125 2 3.854123e+01 3.805992e+01 -0.084433 
251 126 5 3.826344e+01 3.826344e+01 -0.600000 
252 126 2 3.826344e+01 3.826344e+01 -0.100000 
253 127 1 3.779637e+01 3.827435e+01 -0.506597 
254 127 2 3.798462e+01 3.846498e+01 -0.084433 
255 128 5 3.740057e+01 3.835256e+01 -0.255468 
256 128 2 3.771643e+01 3.867646e+01 -0.042578 
257 129 5 3.712253e+01 3.854907e+01 0.075200 
258 129 2 3.746662e+01 3.890639e+01 0.012533 
259 130 1 3.697121e+01 3.887791e+01 0.382454 
260 130 2 3.723670e+01 3.915709e+01 0.063742 
261 131 5 3.691576e+01 3.931129e+01 0.570634 
262 131 2 3.702153e+01 3.942392e+01 0.095106 
263 132 5 3.689556e+01 3.978782e+01 0.581150 
264 132 2 3.681101e+01 3.969665e+01 0.096858 
265 133 1 3.683945e+01 4.023139e+01 0.410728 
266 133 2 3.659330e+01 3.996257e+01 0.068455 
267 134 5 3.668788e+01 4.057480e+01 0.112429 
268 134 2 3.635848e+01 4.021050e+01 0.018738 
269 135 5 3.641123e+01 4.078101e+01 -0.220875 
270 135 2 3.610161e+01 4.043423e+01 -0.036812 
271 136 1 3.601858e+01 4.085506e+01 -0.485410 
272 136 2 3.582423e+01 4.063461e+01 -0.080902 
273 137 5 3.555435e+01 4.084298e+01 -0.598816 
274 137 2 3.553374e+01 4.081930e+01 -0.099803 
275 138 5 3.508406e+01 4.081779e+01 -0.525784 
276 138 2 3.524107e+01 4.100046e+01 -0.087631 
277 139 1 3.467372e+01 4.085693e+01 -0.289052 
278 139 2 3.495723e+01 4.119099e+01 -0.048175 
279 140 5 3.436942e+01 4.101800e+01 0.037674 
280 140 2 3.468991e+01 4.140049e+01 0.006279 
281 141 5 3.418331e+01 4.132052e+01 0.352671 
282 141 2 3.444115e+01 4.163220e+01 0.058779 
283 142 1 3.409035e+01 4.173937e+01 0.557866 
284 142 2 3.420678e+01 4.188193e+01 0.092978 
285 143 5 3.403663e+01 4.221220e+01 0.589372 
286 143 2 3.397782e+01 4.213927e+01 0.098229 
287 144 5 3.395651e+01 4.265861e+01 0.437381 
288 144 2 3.374335e+01 4.239082e+01 0.072897 
289 145 1 3.379311e+01 4.300513e+01 0.149214 
290 145 2 3.349388e+01 4.262433e+01 0.024869 
291 146 5 3.351579e+01 4.320830e+01 -0.185410 
292 146 2 3.322433e+01 4.283255e+01 -0.030902 
293 147 5 3.312924e+01 4.326861e+01 -0.462308 
294 147 2 3.293549e+01 4.301556e+01 -0.077051 
295 148 1 3.267147e+01 4.323079e+01 -0.595269 
296 148 2 3.263369e+01 4.318079e+01 -0.099211 
297 149 5 3.220150e+01 4.317016e+01 -0.542896 
298 149 2 3.232878e+01 4.334081e+01 -0.090483 
299 150 5 3.178073e+01 4.316940e+01 -0.321496 
300 150 2 3.203102e+01 4.350937e+01 -0.053583 
301 151 1 3.145396e+01 4.329267e+01 -0.000000 
302 151 2 3.174786e+01 4.369718e+01 -0.000000 
303 152 5 3.123575e+01 4.356535e+01 0.321496 
304 152 2 3.148175e+01 4.390844e+01 0.053583 
305 153 5 3.110646e+01 4.396576e+01 0.542896 
306 153 2 3.122942e+01 4.413955e+01 0.090483 
307 154 1 3.101888e+01 4.443147e+01 0.595269 
308 154 2 3.098301e+01 4.438008e+01 0.099211 
309 155 5 3.091340e+01 4.487852e+01 0.462308 
310 155 2 3.073260e+01 4.461605e+01 0.077051 
311 156 5 3.073658e+01 4.522751e+01 0.185410 
312 156 2 3.046930e+01 4.483421e+01 0.030902 
313 157 1 3.045766e+01 4.542847e+01 -0.149214 
314 157 2 3.018797e+01 4.502622e+01 -0.024869 
315 158 5 3.007761e+01 4.547680e+01 -0.437381 
316 158 2 2.988880e+01 4.519132e+01 -0.072897 
317 159 5 2.962829e+01 4.541505e+01 -0.589372 
318 159 2 2.957710e+01 4.533658e+01 -0.098229 
319 160 1 2.916200e+01 4.532002e+01 -0.557866 
320 160 2 2.926160e+01 4.547481e+01 -0.092978 
321 161 5 2.873493e+01 4.527900e+01 -0.352671 
322 161 2 2.895167e+01 4.562054e+01 -0.058779 
323 162 5 2.838970e+01 4.536252e+01 -0.037674 
324 162 2 2.865444e+01 4.578552e+01 -0.006279 
325 163 1 2.814248e+01 4.560215e+01 0.289052 
326 163 2 2.837259e+01 4.597502e+01 0.048175 
327 164 5 2.797846e+01 4.598031e+01 0.525784 
328 164 2 2.810367e+01 4.618609e+01 0.087631 
329 165 5 2.785708e+01 4.643537e+01 0.598816 
330 165 2 2.784093e+01 4.640845e+01 0.099803 
331 166 1 2.772512e+01 4.688062e+01 0.485410 
332 166 2 2.757552e+01 4.662765e+01 0.080902 
333 167 5 2.753336e+01 4.723117e+01 0.220875 
334 167 2 2.729923e+01 4.682954e+01 0.036812 
335 168 5 2.725175e+01 4.743055e+01 -0.112429 
336 168 2 2.700707e+01 4.700469e+01 -0.018738 
337 169 1 2.687831e+01 4.746858e+01 -0.410728 
338 169 2 2.669872e+01 4.715141e+01 -0.068455 
339 170 5 2.643911e+01 4.738488e+01 -0.581150 
340 170 2 2.637853e+01 4.727629e+01 -0.096858 
341 171 5 2.597966e+01 4.725683e+01 -0.570634 
342 171 2 2.605410e+01 4.739222e+01 -0.095106 
343 172 1 2.555036e+01 4.717565e+01 -0.382454 
344 172 2 2.573383e+01 4.751441e+01 -0.063742 
345 173 5 2.519086e+01 4.721794e+01 -0.075200 
346 173 2 2.542435e+01 4.765561e+01 -0.012533 
347 174 5 2.491804e+01 4.742165e+01 0.255468 
348 174 2 2.512848e+01 4.782214e+01 0.042578 
349 175 1 2.472135e+01 4.777391e+01 0.506597 
350 175 2 2.484447e+01 4.801186e+01 0.084433 
351 176 5 2.456664e+01 4.821475e+01 0.600000 
352 176 2 2.456664e+01 4.821475e+01 0.100000 
353 177 5 2.440737e+01 4.865552e+01 0.506597 
354 177 2 2.428724e+01 4.841605e+01 0.084433 
355 178 1 2.419921e+01 4.900643e+01 0.255468 
356 178 2 2.399890e+01 4.860078e+01 0.042578 
357 179 5 2.391371e+01 4.920462e+01 -0.075200 
358 179 2 2.369687e+01 4.875846e+01 -0.012533 
359 180 5 2.354671e+01 4.923395e+01 -0.382454 
360 180 2 2.338049e+01 4.888640e+01 -0.063742 
361 181 1 2.311900e+01 4.913038e+01 -0.570634 
362 181 2 2.305322e+01 4.899058e+01 -0.095106 
363 182 5 2.266928e+01 4.897101e+01 -0.581150 
364 182 2 2.272152e+01 4.908385e+01 -0.096858 
365 183 5 2.224173e+01 4.885021e+01 -0.410728 
366 183 2 2.239277e+01 4.918193e+01 -0.068455 
367 184 1 2.187225e+01 4.885027e+01 -0.112429 
368 184 2 2.207296e+01 4.929854e+01 -0.018738 
369 185 5 2.157758e+01 4.901557e+01 0.220875 
370 185 2 2.176489e+01 4.944106e+01 0.036812 
371 186 5 2.135067e+01 4.933850e+01 0.485410 
372 186 2 2.146739e+01 4.960822e+01 0.080902 
373 187 1 2.116353e+01 4.976154e+01 0.598816 
374 187 2 2.117582e+01 4.979043e+01 0.099803 
375 188 5 2.097644e+01 5.019500e+01 0.525784 
376 188 2 2.088356e+01 4.997275e+01 0.087631 
377 189 5 2.075055e+01 5.054480e+01 0.289052 
378 189 2 2.058415e+01 5.013947e+01 0.048175 
379 190 1 2.045987e+01 5.074191e+01 -0.037674 
380 190 2 2.027326e+01 5.027910e+01 -0.006279 
381 191 5 2.009890e+01 5.076402e+01 -0.352671 
382 191 2 1.994999e+01 5.038792e+01 -0.058779 
383 192 5 1.968371e+01 5.064274e+01 -0.557866 
384 192 2 1.961703e+01 5.047118e+01 -0.092978 
385 193 1 1.924633e+01 5.045400e+01 -0.589372 
386 193 2 1.927972e+01 5.054154e+01 -0.098229 
387 194 5 1.882438e+01 5.029456e+01 -0.437381 
388 194 2 1.894436e+01 5.061511e+01 -0.072897 
389 195 5 1.844926e+01 5.025186e+01 -0.149214 
390 195 2 1.861617e+01 5.070648e+01 -0.024869 
391 196 1 1.813672e+01 5.037668e+01 0.185410 
392 196 2 1.829780e+01 5.082410e+01 0.030902 
393 197 5 1.788247e+01 5.066709e+01 0.462308 
394 197 2 1.798854e+01 5.096764e+01 0.077051 
395 198 5 1.766421e+01 5.106883e+01 0.595269 
396 198 2 1.768469e+01 5.112805e+01 0.099211 
397 199 1 1.744911e+01 5.149198e+01 0.542896 
398 199 2 1.738078e+01 5.129035e+01 0.090483 
399 200 5 1.720434e+01 5.183895e+01 0.321496 
400 200 2 1.707136e+01 5.143827e+01 0.053583 
401 201 5 1.690715e+01 5.203485e+01 0.000000 
402 201 2 1.675264e+01 5.155932e+01 0.000000 
403 202 1 1.655157e+01 5.205104e+01 -0.321496 
404 202 2 1.642364e+01 5.164873e+01 -0.053583 
405 203 5 1.614960e+01 5.191422e+01 -0.542896 
406 203 2 1.608636e+01 5.171094e+01 -0.090483 
407 204 5 1.572686e+01 5.169831e+01 -0.595269 
408 204 2 1.574510e+01 5.175826e+01 -0.099211 
409 205 1 1.531415e+01 5.150159e+01 -0.462308 
410 205 2 1.540499e+01 5.180708e+01 -0.077051 
411 206 5 1.493775e+01 5.141609e+01 -0.185410 
412 206 2 1.507042e+01 5.187274e+01 -0.030902 
413 207 5 1.461153e+01 5.149881e+01 0.149214 
414 207 2 1.474372e+01 5.196472e+01 0.024869 
415 208 1 1.433316e+01 5.175384e+01 0.437381 
416 208 2 1.442451e+01 5.208370e+01 0.072897 
417 209 5 1.408551e+01 5.213085e+01 0.589372 
418 209 2 1.410995e+01 5.222130e+01 0.098229 
419 210 5 1.384260e+01 5.254063e+01 0.557866 
420 210 2 1.379571e+01 5.236264e+01 0.092978 
421 211 1 1.357799e+01 5.288279e+01 0.352671 
422 211 2 1.347740e+01 5.249099e+01 0.058779 
423 212 5 1.327297e+01 5.307708e+01 0.037674 
424 212 2 1.315191e+01 5.259297e+01 0.006279 
425 213 5 1.292194e+01 5.308847e+01 -0.289052 
426 213 2 1.281832e+01 5.266274e+01 -0.048175 
427 214 1 1.253358e+01 5.293825e+01 -0.525784 
428 214 2 1.247809e+01 5.270385e+01 -0.087631 
429 215 5 1.212744e+01 5.269755e+01 -0.598816 
430 215 2 1.213448e+01 5.272814e+01 -0.099803 
431 216 5 1.172738e+01 5.246529e+01 -0.485410 
432 216 2 1.179149e+01 5.275211e+01 -0.080902 
433 217 1 1.135400e+01 5.233741e+01 -0.220875 
434 217 2 1.145256e+01 5.279173e+01 -0.036812 
435 218 5 1.101845e+01 5.237689e+01 0.112429 
436 218 2 1.111956e+01 5.285751e+01 0.018738 
437 219 5 1.071949e+01 5.259401e+01 0.410728 
438 219 2 1.079228e+01 5.295116e+01 0.068455 
439 220 1 1.044460e+01 5.294305e+01 0.581150 
440 220 2 1.046867e+01 5.306504e+01 0.096858 
441 221 5 1.017445e+01 5.333632e+01 0.570634 
442 221 2 1.014550e+01 5.318455e+01 0.095106 
443 222 5 9.889302e+00 5.367151e+01 0.382454 
444 222 2 9.819492e+00 5.329263e+01 0.063742 
445 223 1 9.575153e+00 5.386350e+01 0.075200 
446 223 2 9.488331e+00 5.337510e+01 0.012533 
447 224 5 9.227689e+00 5.387097e+01 -0.255468 
448 224 2 9.151307e+00 5.342506e+01 -0.042578 
449 225 5 8.853020e+00 5.370944e+01 -0.506597 
450 225 2 8.809448e+00 5.344509e+01 -0.084433 
451 226 1 8.465088e+00 5.344646e+01 -0.600000 
452 226 2 8.465088e+00 5.344646e+01 -0.100000 
453 227 5 8.080812e+00 5.318075e+01 -0.506597 
454 227 2 8.121060e+00 5.344562e+01 -0.084433 
455 228 5 7.714627e+00 5.301138e+01 -0.255468 
456 228 2 7.779779e+00 5.345908e+01 -0.042578 
457 229 1 7.374180e+00 5.300693e+01 0.075200 
458 229 2 7.442532e+00 5.349826e+01 0.012533 
459 230 5 7.058477e+00 5.318402e+01 0.382454 
460 230 2 7.109163e+00 5.356593e+01 0.063742 
461 231 5 6.758879e+00 5.350204e+01 0.570634 
462 231 2 6.778244e+00 5.365533e+01 0.095106 
463 232 1 6.462438e+00 5.387569e+01 0.581150 
464 232 2 6.447628e+00 5.375223e+01 0.096858 
465 233 5 6.156323e+00 5.420156e+01 0.410728 
466 233 2 6.115188e+00 5.383940e+01 0.068455 
467 234 5 5.831849e+00 5.439029e+01 0.112429 
468 234 2 5.779488e+00 5.390195e+01 0.018738 
469 235 1 5.486830e+00 5.439452e+01 -0.220875 
470 235 2 5.440173e+00 5.393197e+01 -0.036812 
471 236 5 5.125642e+00 5.422363e+01 -0.485410 
472 236 2 5.097985e+00 5.393104e+01 -0.080902 
473 237 5 4.757173e+00 5.394099e+01 -0.598816 
474 237 2 4.754415e+00 5.390971e+01 -0.099803 
475 238 1 4.391503e+00 5.364418e+01 -0.525784 
476 238 2 4.411156e+00 5.388425e+01 -0.087631 
477 239 5 4.036530e+00 5.343465e+01 -0.289052 
478 239 2 4.069534e+00 5.387156e+01 -0.048175 
479 240 5 3.695669e+00 5.338610e+01 0.037674 
480 240 2 3.730131e+00 5.388392e+01 0.006279 
481 241 1 3.367284e+00 5.352145e+01 0.352671 
482 241 2 3.392683e+00 5.392516e+01 0.058779 
483 242 5 3.045886e+00 5.380566e+01 0.557866 
484 242 2 3.056289e+00 5.398943e+01 0.092978 
485 243 5 2.724504e+00 5.415662e+01 0.589372 
486 243 2 2.719796e+00 5.406305e+01 0.098229 
487 244 1 2.397292e+00 5.447068e+01 0.437381 
488 244 2 2.382243e+00 5.412874e+01 0.072897 
489 245 5 2.061420e+00 5.465497e+01 0.149214 
490 245 2 2.043167e+00 5.417102e+01 0.024869 
491 246 5 1.717644e+00 5.465633e+01 -0.185410 
492 246 2 1.702708e+00 5.418104e+01 -0.030902 
493 247 1 1.369468e+00 5.447792e+01 -0.462308 
494 247 2 1.361459e+00 5.415931e+01 -0.077051 
495 248 5 1.021357e+00 5.417825e+01 -0.595269 
496 248 2 1.020176e+00 5.411560e+01 -0.099211 
497 249 5 6.767719e-01 5.385296e+01 -0.542896 
498 249 2 6.794471e-01 5.406583e+01 -0.090483 
499 250 1 3.368147e-01 5.360503e+01 -0.321496 
500 250 2 3.394673e-01 5.402718e+01 -0.053583 
501 251 5 2.402537e-09 5.351268e+01 -0.000000 
502 251 2 2.424985e-09 5.401268e+01 -0.000000 
503 252 5 -3.368147e-01 5.360503e+01 0.321496 
504 252 2 -3.394673e-01 5.402718e+01 0.053583 
505 253 1 -6.767719e-01 5.385296e+01 0.542896 
506 253 2 -6.794471e-01 5.406583e+01 0.090483 
507 254 5 -1.021357e+00 5.417825e+01 0.595269 
508 254 2 -1.020176e+00 5.411560e+01 0.099211 
509 255 5 -1.369468e+00 5.447792e+01 0.462308 
510 255 2 -1.361459e+00 5.415931e+01 0.077051 
511 256 1 -1.717644e+00 5.465633e+01 0.185410 
512 256 2 -1.702708e+00 5.418104e+01 0.030902 
513 257 5 -2.061420e+00 5.465497e+01 -0.149214 
514 257 2 -2.043167e+00 5.417102e+01 -0.024869 
515 258 5 -2.397292e+00 5.447068e+01 -0.437381 
516 258 2 -2.382243e+00 5.412874e+01 -0.072897 
517 259 1 -2.724504e+00 5.415662e+01 -0.589372 
518 259 2 -2.719796e+00 5.406305e+01 -0.098229 
519 260 5 -3.045886e+00 5.380566e+01 -0.557866 
520 260 2 -3.056289e+00 5.398943e+01 -0.092978 
521 261 5 -3.367284e+00 5.352145e+01 -0.352671 
522 261 2 -3.392683e+00 5.392516e+01 -0.058779 
523 262 1 -3.695669e+00 5.338610e+01 -0.037674 
524 262 2 -3.730131e+00 5.388392e+01 -0.006279 
525 263 5 -4.036530e+00 5.343465e+01 0.289052 
526 263 2 -4.069534e+00 5.387156e+01 0.048175 
527 264 5 -4.391503e+00 5.364418e+01 0.525784 
528 264 2 -4.411156e+00 5.388425e+01 0.087631 
529 265 1 -4.757173e+00 5.394099e+01 0.598816 
530 265 2 -4.754415e+00 5.390971e+01 0.099803 
531 266 5 -5.125642e+00 5.422363e+01 0.485410 
532 266 2 -5.097985e+00 5.393104e+01 0.080902 
533 267 5 -5.486830e+00 5.439452e+01 0.220875 
534 267 2 -5.440173e+00 5.393197e+01 0.036812 
535 268 1 -5.831849e+00 5.439029e+01 -0.112429 
536 268 2 -5.779488e+00 5.390195e+01 -0.018738 
537 269 5 -6.156323e+00 5.420156e+01 -0.410728 
538 269 2 -6.115188e+00 5.383940e+01 -0.068455 
539 270 5 -6.462438e+00 5.387569e+01 -0.581150 
540 270 2 -6.447628e+00 5.375223e+01 -0.096858 
541 271 1 -6.758879e+00 5.350204e+01 -0.570634 
542 271 2 -6.778244e+00 5.365533e+01 -0.095106 
543 272 5 -7.058477e+00 5.318402e+01 -0.382454 
544 272 2 -7.109163e+00 5.356593e+01 -0.063742 
545 273 5 -7.374180e+00 5.300693e+01 -0.075200 
546 273 2 -7.442532e+00 5.349826e+01 -0.012533 
547 274 1 -7.714627e+00 5.301138e+01 0.255468 
548 274 2 -7.779779e+00 5.345908e+01 0.042578 
549 275 5 -8.080812e+00 5.318075e+01 0.506597 
550 275 2 -8.121060e+00 5.344562e+01 0.084433 
551 276 5 -8.465088e+00 5.344646e+01 0.600000 
552 276 2 -8.465088e+00 5.344646e+01 0.100000 
553 277 1 -8.853020e+00 5.370944e+01 0.506597 
554 277 2 -8.809448e+00 5.344509e+01 0.084433 
555 278 5 -9.227689e+00 5.387097e+01 0.255468 
556 278 2 -9.151307e+00 5.342506e+01 0.042578 
557 279 5 -9.575153e+00 5.386350e+01 -0.075200 
558 279 2 -9.488331e+00 5.337510e+01 -0.012533 
559 280 1 -9.889302e+00 5.367151e+01 -0.382454 
560 280 2 -9.819492e+00 5.329263e+01 -0.063742 
561 281 5 -1.017445e+01 5.333632e+01 -0.570634 
562 281 2 -1.014550e+01 5.318455e+01 -0.095106 
563 282 5 -1.044460e+01 5.294305e+01 -0.581150 
564 282 2 -1.046867e+01 5.306504e+01 -0.096858 
565 283 1 -1.071949e+01 5.259401e+01 -0.410728 
566 283 2 -1.079228e+01 5.295116e+01 -0.068455 
567 284 5 -1.101845e+01 5.237689e+01 -0.112429 
568 284 2 -1.111956e+01 5.285751e+01 -0.018738 
569 285 5 -1.135400e+01 5.233741e+01 0.220875 
570 285 2 -1.145256e+01 5.279173e+01 0.036812 
571 286 1 -1.172738e+01 5.246529e+01 0.485410 
572 286 2 -1.179149e+01 5.275211e+01 0.080902 
573 287 5 -1.212744e+01 5.269755e+01 0.598816 
574 287 2 -1.213448e+01 5.272814e+01 0.099803 
575 288 5 -1.253358e+01 5.293825e+01 0.525784 
576 288 2 -1.247809e+01 5.270385e+01 0.087631 
577 289 1 -1.292194e+01 5.308847e+01 0.289052 
578 289 2 -1.281832e+01 5.266274e+01 0.048175 
579 290 5 -1.327297e+01 5.307708e+01 -0.037674 
580 290 2 -1.315191e+01 5.259297e+01 -0.006279 
581 291 5 -1.357799e+01 5.288279e+01 -0.352671 
582 291 2 -1.347740e+01 5.249099e+01 -0.058779 
583 292 1 -1.384260e+01 5.254063e+01 -0.557866 
584 292 2 -1.379571e+01 5.236264e+01 -0.092978 
585 293 5 -1.408551e+01 5.213085e+01 -0.589372 
586 293 2 -1.410995e+01 5.222130e+01 -0.098229 
587 294 5 -1.433316e+01 5.175384e+01 -0.437381 
588 294 2 -1.442451e+01 5.208370e+01 -0.072897 
589 295 1 -1.461153e+01 5.149881e+01 -0.149214 
590 295 2 -1.474372e+01 5.196472e+01 -0.024869 
591 296 5 -1.493775e+01 5.141609e+01 0.185410 
592 296 2 -1.507042e+01 5.187274e+01 0.030902 
593 297 5 -1.531415e+01 5.150159e+01 0.462308 
594 297 2 -1.540499e+01 5.180708e+01 0.077051 
595 298 1 -1.572686e+01 5.169831e+01 0.595269 
596 298 2 -1.574510e+01 5.175826e+01 0.099211 
597 299 5 -1.614960e+01 5.191422e+01 0.542896 
598 299 2 -1.608636e+01 5.171094e+01 0.090483 
599 300 5 -1.655157e+01 5.205104e+01 0.321496 
600 300 2 -1.642364e+01 5.164873e+01 0.053583 
601 301 1 -1.690715e+01 5.203485e+01 0.000000 
602 301 2 -1.675264e+01 5.155932e+01 0.000000 
603 302 5 -1.720434e+01 5.183895e+01 -0.321496 
604 302 2 -1.707136e+01 5.143827e+01 -0.053583 
605 303 5 -1.744911e+01 5.149198e+01 -0.542896 
606 303 2 -1.738078e+01 5.129035e+01 -0.090483 
607 304 1 -1.766421e+01 5.106883e+01 -0.595269 
608 304 2 -1.768469e+01 5.112805e+01 -0.099211 
609 305 5 -1.788247e+01 5.066709e+01 -0.462308 
610 305 2 -1.798854e+01 5.096764e+01 -0.077051 
611 306 5 -1.813672e+01 5.037668e+01 -0.185410 
612 306 2 -1.829780e+01 5.082410e+01 -0.030902 
613 307 1 -1.844926e+01 5.025186e+01 0.149214 
614 307 2 -1.861617e+01 5.070648e+01 0.024869 
615 308 5 -1.882438e+01 5.029456e+01 0.437381 
616 308 2 -1.894436e+01 5.061511e+01 0.072897 
617 309 5 -1.924633e+01 5.045400e+01 0.589372 
618 309 2 -1.927972e+01 5.054154e+01 0.098229 
619 310 1 -1.968371e+01 5.064274e+01 0.557866 
620 310 2 -1.961703e+01 5.047118e+01 0.092978 
621 311 5 -2.009890e+01 5.076402e+01 0.352671 
622 311 2 -1.994999e+01 5.038792e+01 0.058779 
623 312 5 -2.045987e+01 5.074191e+01 0.037674 
624 312 2 -2.027326e+01 5.027910e+01 0.006279 
625 313 1 -2.075055e+01 5.054480e+01 -0.289052 
626 313 2 -2.058415e+01 5.013947e+01 -0.048175 
627 314 5 -2.097644e+01 5.019500e+01 -0.525784 
628 314 2 -2.088356e+01 4.997275e+01 -0.087631 
629 315 5 -2.116353e+01 4.976154e+01 -0.598816 
630 315 2 -2.117582e+01 4.979043e+01 -0.099803 
631 316 1 -2.135067e+01 4.933850e+01 -0.485410 
632 316 2 -2.146739e+01 4.960822e+01 -0.080902 
633 317 5 -2.157758e+01 4.901557e+01 -0.220875 
634 317 2 -2.176489e+01 4.944106e+01 -0.036812 
635 318 5 -2.187225e+01 4.885027e+01 0.112429 
636 318 2 -2.207296e+01 4.929854e+01 0.018738 
637 319 1 -2.224173e+01 4.885021e+01 0.410728 
638 319 2 -2.239277e+01 4.918193e+01 0.068455 
639 320 5 -2.266928e+01 4.897101e+01 0.581150 
640 320 2 -2.272152e+01 4.908385e+01 0.096858 
641 321 5 -2.311900e+01 4.913038e+01 0.570634 
642 321 2 -2.305322e+01 4.899058e+01 0.095106 